<?xml version="1.0" encoding="UTF-8"?>

<!-- generated on 2024-11-08 11:04:16 by Eclipse SUMO GUI Version 1.20.0
<configuration xmlns:xsi="http://www.w3.org/2001/XMLSchema-instance" xsi:noNamespaceSchemaLocation="http://sumo.dlr.de/xsd/sumoConfiguration.xsd">

    <input>
        <net-file value="C:\sumo-rl-main\nets\2way-single-intersection\single-intersection.net.xml"/>
        <route-files value="C:\sumo-rl-main\nets\2way-single-intersection\single-intersection-gen.rou.xml"/>
    </input>

    <output>
        <tripinfo-output value="C:\sumo-rl-main\nets\2way-single-intersection\osm.khm.output.tripinfo.xml"/>
    </output>

    <time>
        <begin value="0"/>
        <end value="150000"/>
    </time>

    <emissions>
        <device.emissions.probability value="1"/>
    </emissions>

</configuration>
-->

<tripinfos xmlns:xsi="http://www.w3.org/2001/XMLSchema-instance" xsi:noNamespaceSchemaLocation="http://sumo.dlr.de/xsd/tripinfo_file.xsd">
</tripinfos>
